<?xml version="1.0" encoding="UTF-8"?>

<!-- generated on 2026-02-20T22:33:52.326855+03:00 by Eclipse SUMO sumo 1.26.0
<sumoConfiguration xmlns:xsi="http://www.w3.org/2001/XMLSchema-instance" xsi:noNamespaceSchemaLocation="http://sumo.dlr.de/xsd/sumoConfiguration.xsd">

    <input>
        <net-file value="src/automotive/examples/sumo_files_v2v_map/map.net.xml"/>
        <route-files value="src/automotive/examples/sumo_files_v2v_map/cars.rou.xml"/>
        <additional-files value="src/automotive/examples/sumo_files_v2v_map/rerouter.add.xml"/>
    </input>

    <output>
        <netstate-dump value="/home/afetz/work/clean/NEWWAY/analysis/scenario_runs/2026-02-20/eva-short-non-sionna-tx23-223346/artifacts/eva-netstate.xml"/>
    </output>

    <time>
        <begin value="0"/>
        <end value="300"/>
        <step-length value="0.100000"/>
    </time>

    <report>
        <verbose value="false"/>
        <no-warnings value="true"/>
        <no-step-log value="true"/>
    </report>

    <traci_server>
        <remote-port value="41045"/>
    </traci_server>

    <random_number>
        <seed value="10"/>
    </random_number>

    <gui_only>
        <quit-on-end value="true"/>
        <start value="true"/>
    </gui_only>

</sumoConfiguration>
-->

<netstate xmlns:xsi="http://www.w3.org/2001/XMLSchema-instance" xsi:noNamespaceSchemaLocation="http://sumo.dlr.de/xsd/netstate_file.xsd">
    <timestep time="0.00"/>
    <timestep time="0.10">
        <edge id="ne_to_nw">
            <lane id="ne_to_nw_0">
                <vehicle id="veh1" pos="5.10" speed="0.00"/>
            </lane>
            <lane id="ne_to_nw_1"/>
        </edge>
        <edge id="nw_to_ne">
            <lane id="nw_to_ne_0">
                <vehicle id="veh6" pos="5.10" speed="0.00"/>
            </lane>
            <lane id="nw_to_ne_1"/>
        </edge>
        <edge id="nw_to_sw">
            <lane id="nw_to_sw_0">
                <vehicle id="veh2" pos="6.60" speed="0.00"/>
            </lane>
            <lane id="nw_to_sw_1"/>
        </edge>
        <edge id="se_to_sw">
            <lane id="se_to_sw_0">
                <vehicle id="veh3" pos="5.10" speed="0.00"/>
            </lane>
            <lane id="se_to_sw_1"/>
        </edge>
        <edge id="sw_to_nw">
            <lane id="sw_to_nw_0">
                <vehicle id="veh4" pos="5.10" speed="0.00"/>
            </lane>
            <lane id="sw_to_nw_1"/>
        </edge>
        <edge id="sw_to_se">
            <lane id="sw_to_se_0">
                <vehicle id="veh5" pos="5.10" speed="0.00"/>
            </lane>
            <lane id="sw_to_se_1"/>
        </edge>
    </timestep>
    <timestep time="0.20">
        <edge id="ne_to_nw">
            <lane id="ne_to_nw_0">
                <vehicle id="veh1" pos="5.14" speed="0.38"/>
            </lane>
            <lane id="ne_to_nw_1"/>
        </edge>
        <edge id="nw_to_ne">
            <lane id="nw_to_ne_0">
                <vehicle id="veh6" pos="5.14" speed="0.39"/>
            </lane>
            <lane id="nw_to_ne_1"/>
        </edge>
        <edge id="nw_to_sw">
            <lane id="nw_to_sw_0">
                <vehicle id="veh2" pos="6.64" speed="0.40"/>
            </lane>
            <lane id="nw_to_sw_1"/>
        </edge>
        <edge id="se_to_sw">
            <lane id="se_to_sw_0">
                <vehicle id="veh3" pos="5.14" speed="0.39"/>
            </lane>
            <lane id="se_to_sw_1"/>
        </edge>
        <edge id="sw_to_nw">
            <lane id="sw_to_nw_0">
                <vehicle id="veh4" pos="5.14" speed="0.40"/>
            </lane>
            <lane id="sw_to_nw_1"/>
        </edge>
        <edge id="sw_to_se">
            <lane id="sw_to_se_0">
                <vehicle id="veh5" pos="5.14" speed="0.38"/>
            </lane>
            <lane id="sw_to_se_1"/>
        </edge>
    </timestep>
    <timestep time="0.30">
        <edge id="ne_to_nw">
            <lane id="ne_to_nw_0">
                <vehicle id="veh1" pos="5.22" speed="0.77"/>
            </lane>
            <lane id="ne_to_nw_1"/>
        </edge>
        <edge id="nw_to_ne">
            <lane id="nw_to_ne_0">
                <vehicle id="veh6" pos="5.21" speed="0.75"/>
            </lane>
            <lane id="nw_to_ne_1"/>
        </edge>
        <edge id="nw_to_sw">
            <lane id="nw_to_sw_0">
                <vehicle id="veh2" pos="6.72" speed="0.78"/>
            </lane>
            <lane id="nw_to_sw_1"/>
        </edge>
        <edge id="se_to_sw">
            <lane id="se_to_sw_0">
                <vehicle id="veh3" pos="5.21" speed="0.75"/>
            </lane>
            <lane id="se_to_sw_1"/>
        </edge>
        <edge id="sw_to_nw">
            <lane id="sw_to_nw_0">
                <vehicle id="veh4" pos="5.22" speed="0.77"/>
            </lane>
            <lane id="sw_to_nw_1"/>
        </edge>
        <edge id="sw_to_se">
            <lane id="sw_to_se_0">
                <vehicle id="veh5" pos="5.22" speed="0.77"/>
            </lane>
            <lane id="sw_to_se_1"/>
        </edge>
    </timestep>
    <timestep time="0.40">
        <edge id="ne_to_nw">
            <lane id="ne_to_nw_0">
                <vehicle id="veh1" pos="5.33" speed="1.17"/>
            </lane>
            <lane id="ne_to_nw_1"/>
        </edge>
        <edge id="nw_to_ne">
            <lane id="nw_to_ne_0">
                <vehicle id="veh6" pos="5.33" speed="1.11"/>
            </lane>
            <lane id="nw_to_ne_1"/>
        </edge>
        <edge id="nw_to_sw">
            <lane id="nw_to_sw_0">
                <vehicle id="veh2" pos="6.83" speed="1.15"/>
            </lane>
            <lane id="nw_to_sw_1"/>
        </edge>
        <edge id="se_to_sw">
            <lane id="se_to_sw_0">
                <vehicle id="veh3" pos="5.32" speed="1.10"/>
            </lane>
            <lane id="se_to_sw_1"/>
        </edge>
        <edge id="sw_to_nw">
            <lane id="sw_to_nw_0">
                <vehicle id="veh4" pos="5.33" speed="1.14"/>
            </lane>
            <lane id="sw_to_nw_1"/>
        </edge>
        <edge id="sw_to_se">
            <lane id="sw_to_se_0">
                <vehicle id="veh5" pos="5.33" speed="1.13"/>
            </lane>
            <lane id="sw_to_se_1"/>
        </edge>
    </timestep>
    <timestep time="0.50">
        <edge id="ne_to_nw">
            <lane id="ne_to_nw_0">
                <vehicle id="veh1" pos="5.49" speed="1.53"/>
            </lane>
            <lane id="ne_to_nw_1"/>
        </edge>
        <edge id="nw_to_ne">
            <lane id="nw_to_ne_0">
                <vehicle id="veh6" pos="5.47" speed="1.46"/>
            </lane>
            <lane id="nw_to_ne_1"/>
        </edge>
        <edge id="nw_to_sw">
            <lane id="nw_to_sw_0">
                <vehicle id="veh2" pos="6.99" speed="1.55"/>
            </lane>
            <lane id="nw_to_sw_1"/>
        </edge>
        <edge id="se_to_sw">
            <lane id="se_to_sw_0">
                <vehicle id="veh3" pos="5.47" speed="1.43"/>
            </lane>
            <lane id="se_to_sw_1"/>
        </edge>
        <edge id="sw_to_nw">
            <lane id="sw_to_nw_0">
                <vehicle id="veh4" pos="5.48" speed="1.48"/>
            </lane>
            <lane id="sw_to_nw_1"/>
        </edge>
        <edge id="sw_to_se">
            <lane id="sw_to_se_0">
                <vehicle id="veh5" pos="5.48" speed="1.52"/>
            </lane>
            <lane id="sw_to_se_1"/>
        </edge>
    </timestep>
    <timestep time="0.60">
        <edge id="ne_to_nw">
            <lane id="ne_to_nw_0">
                <vehicle id="veh1" pos="5.67" speed="1.87"/>
            </lane>
            <lane id="ne_to_nw_1"/>
        </edge>
        <edge id="nw_to_ne">
            <lane id="nw_to_ne_0">
                <vehicle id="veh6" pos="5.65" speed="1.78"/>
            </lane>
            <lane id="nw_to_ne_1"/>
        </edge>
        <edge id="nw_to_sw">
            <lane id="nw_to_sw_0">
                <vehicle id="veh2" pos="7.18" speed="1.89"/>
            </lane>
            <lane id="nw_to_sw_1"/>
        </edge>
        <edge id="se_to_sw">
            <lane id="se_to_sw_0">
                <vehicle id="veh3" pos="5.64" speed="1.75"/>
            </lane>
            <lane id="se_to_sw_1"/>
        </edge>
        <edge id="sw_to_nw">
            <lane id="sw_to_nw_0">
                <vehicle id="veh4" pos="5.66" speed="1.84"/>
            </lane>
            <lane id="sw_to_nw_1"/>
        </edge>
        <edge id="sw_to_se">
            <lane id="sw_to_se_0">
                <vehicle id="veh5" pos="5.66" speed="1.83"/>
            </lane>
            <lane id="sw_to_se_1"/>
        </edge>
    </timestep>
    <timestep time="0.70">
        <edge id="ne_to_nw">
            <lane id="ne_to_nw_0">
                <vehicle id="veh1" pos="5.90" speed="2.22"/>
            </lane>
            <lane id="ne_to_nw_1"/>
        </edge>
        <edge id="nw_to_ne">
            <lane id="nw_to_ne_0">
                <vehicle id="veh6" pos="5.86" speed="2.14"/>
            </lane>
            <lane id="nw_to_ne_1"/>
        </edge>
        <edge id="nw_to_sw">
            <lane id="nw_to_sw_0">
                <vehicle id="veh2" pos="7.40" speed="2.26"/>
            </lane>
            <lane id="nw_to_sw_1"/>
        </edge>
        <edge id="se_to_sw">
            <lane id="se_to_sw_0">
                <vehicle id="veh3" pos="5.85" speed="2.05"/>
            </lane>
            <lane id="se_to_sw_1"/>
        </edge>
        <edge id="sw_to_nw">
            <lane id="sw_to_nw_0">
                <vehicle id="veh4" pos="5.88" speed="2.17"/>
            </lane>
            <lane id="sw_to_nw_1"/>
        </edge>
        <edge id="sw_to_se">
            <lane id="sw_to_se_0">
                <vehicle id="veh5" pos="5.88" speed="2.19"/>
            </lane>
            <lane id="sw_to_se_1"/>
        </edge>
    </timestep>
    <timestep time="0.80">
        <edge id="ne_to_nw">
            <lane id="ne_to_nw_0">
                <vehicle id="veh1" pos="6.15" speed="2.52"/>
            </lane>
            <lane id="ne_to_nw_1"/>
        </edge>
        <edge id="nw_to_ne">
            <lane id="nw_to_ne_0">
                <vehicle id="veh6" pos="6.12" speed="2.54"/>
            </lane>
            <lane id="nw_to_ne_1"/>
        </edge>
        <edge id="nw_to_sw">
            <lane id="nw_to_sw_0">
                <vehicle id="veh2" pos="7.67" speed="2.65"/>
            </lane>
            <lane id="nw_to_sw_1"/>
        </edge>
        <edge id="se_to_sw">
            <lane id="se_to_sw_0">
                <vehicle id="veh3" pos="6.08" speed="2.35"/>
            </lane>
            <lane id="se_to_sw_1"/>
        </edge>
        <edge id="sw_to_nw">
            <lane id="sw_to_nw_0">
                <vehicle id="veh4" pos="6.13" speed="2.46"/>
            </lane>
            <lane id="sw_to_nw_1"/>
        </edge>
        <edge id="sw_to_se">
            <lane id="sw_to_se_0">
                <vehicle id="veh5" pos="6.14" speed="2.56"/>
            </lane>
            <lane id="sw_to_se_1"/>
        </edge>
    </timestep>
    <timestep time="0.90">
        <edge id="ne_to_nw">
            <lane id="ne_to_nw_0">
                <vehicle id="veh1" pos="6.43" speed="2.80"/>
            </lane>
            <lane id="ne_to_nw_1"/>
        </edge>
        <edge id="nw_to_ne">
            <lane id="nw_to_ne_0">
                <vehicle id="veh6" pos="6.41" speed="2.92"/>
            </lane>
            <lane id="nw_to_ne_1"/>
        </edge>
        <edge id="nw_to_sw">
            <lane id="nw_to_sw_0">
                <vehicle id="veh2" pos="7.97" speed="3.03"/>
            </lane>
            <lane id="nw_to_sw_1"/>
        </edge>
        <edge id="se_to_sw">
            <lane id="se_to_sw_0">
                <vehicle id="veh3" pos="6.35" speed="2.66"/>
            </lane>
            <lane id="se_to_sw_1"/>
        </edge>
        <edge id="sw_to_nw">
            <lane id="sw_to_nw_0">
                <vehicle id="veh4" pos="6.40" speed="2.75"/>
            </lane>
            <lane id="sw_to_nw_1"/>
        </edge>
        <edge id="sw_to_se">
            <lane id="sw_to_se_0">
                <vehicle id="veh5" pos="6.42" speed="2.82"/>
            </lane>
            <lane id="sw_to_se_1"/>
        </edge>
    </timestep>
    <timestep time="1.00">
        <edge id="ne_to_nw">
            <lane id="ne_to_nw_0">
                <vehicle id="veh1" pos="6.74" speed="3.12"/>
            </lane>
            <lane id="ne_to_nw_1"/>
        </edge>
        <edge id="nw_to_ne">
            <lane id="nw_to_ne_0">
                <vehicle id="veh6" pos="6.73" speed="3.26"/>
            </lane>
            <lane id="nw_to_ne_1"/>
        </edge>
        <edge id="nw_to_sw">
            <lane id="nw_to_sw_0">
                <vehicle id="veh2" pos="8.31" speed="3.37"/>
            </lane>
            <lane id="nw_to_sw_1"/>
        </edge>
        <edge id="se_to_sw">
            <lane id="se_to_sw_0">
                <vehicle id="veh3" pos="6.65" speed="3.06"/>
            </lane>
            <lane id="se_to_sw_1"/>
        </edge>
        <edge id="sw_to_nw">
            <lane id="sw_to_nw_0">
                <vehicle id="veh4" pos="6.71" speed="3.12"/>
            </lane>
            <lane id="sw_to_nw_1"/>
        </edge>
        <edge id="sw_to_se">
            <lane id="sw_to_se_0">
                <vehicle id="veh5" pos="6.74" speed="3.16"/>
            </lane>
            <lane id="sw_to_se_1"/>
        </edge>
    </timestep>
    <timestep time="1.10">
        <edge id="ne_to_nw">
            <lane id="ne_to_nw_0">
                <vehicle id="veh1" pos="7.08" speed="3.42"/>
            </lane>
            <lane id="ne_to_nw_1"/>
        </edge>
        <edge id="nw_to_ne">
            <lane id="nw_to_ne_0">
                <vehicle id="veh6" pos="7.10" speed="3.63"/>
            </lane>
            <lane id="nw_to_ne_1"/>
        </edge>
        <edge id="nw_to_sw">
            <lane id="nw_to_sw_0">
                <vehicle id="veh2" pos="8.67" speed="3.64"/>
            </lane>
            <lane id="nw_to_sw_1"/>
        </edge>
        <edge id="se_to_sw">
            <lane id="se_to_sw_0">
                <vehicle id="veh3" pos="6.99" speed="3.34"/>
            </lane>
            <lane id="se_to_sw_1"/>
        </edge>
        <edge id="sw_to_nw">
            <lane id="sw_to_nw_0">
                <vehicle id="veh4" pos="7.05" speed="3.37"/>
            </lane>
            <lane id="sw_to_nw_1"/>
        </edge>
        <edge id="sw_to_se">
            <lane id="sw_to_se_0">
                <vehicle id="veh5" pos="7.08" speed="3.47"/>
            </lane>
            <lane id="sw_to_se_1"/>
        </edge>
    </timestep>
    <timestep time="1.20">
        <edge id="ne_to_nw">
            <lane id="ne_to_nw_0">
                <vehicle id="veh1" pos="7.46" speed="3.78"/>
            </lane>
            <lane id="ne_to_nw_1"/>
        </edge>
        <edge id="nw_to_ne">
            <lane id="nw_to_ne_0">
                <vehicle id="veh6" pos="7.48" speed="3.84"/>
            </lane>
            <lane id="nw_to_ne_1"/>
        </edge>
        <edge id="nw_to_sw">
            <lane id="nw_to_sw_0">
                <vehicle id="veh2" pos="9.07" speed="3.99"/>
            </lane>
            <lane id="nw_to_sw_1"/>
        </edge>
        <edge id="se_to_sw">
            <lane id="se_to_sw_0">
                <vehicle id="veh3" pos="7.35" speed="3.62"/>
            </lane>
            <lane id="se_to_sw_1"/>
        </edge>
        <edge id="sw_to_nw">
            <lane id="sw_to_nw_0">
                <vehicle id="veh4" pos="7.42" speed="3.71"/>
            </lane>
            <lane id="sw_to_nw_1"/>
        </edge>
        <edge id="sw_to_se">
            <lane id="sw_to_se_0">
                <vehicle id="veh5" pos="7.46" speed="3.73"/>
            </lane>
            <lane id="sw_to_se_1"/>
        </edge>
    </timestep>
    <timestep time="1.30">
        <edge id="ne_to_nw">
            <lane id="ne_to_nw_0">
                <vehicle id="veh1" pos="7.88" speed="4.17"/>
            </lane>
            <lane id="ne_to_nw_1"/>
        </edge>
        <edge id="nw_to_ne">
            <lane id="nw_to_ne_0">
                <vehicle id="veh6" pos="7.90" speed="4.19"/>
            </lane>
            <lane id="nw_to_ne_1"/>
        </edge>
        <edge id="nw_to_sw">
            <lane id="nw_to_sw_0">
                <vehicle id="veh2" pos="9.51" speed="4.36"/>
            </lane>
            <lane id="nw_to_sw_1"/>
        </edge>
        <edge id="se_to_sw">
            <lane id="se_to_sw_0">
                <vehicle id="veh3" pos="7.73" speed="3.83"/>
            </lane>
            <lane id="se_to_sw_1"/>
        </edge>
        <edge id="sw_to_nw">
            <lane id="sw_to_nw_0">
                <vehicle id="veh4" pos="7.82" speed="3.93"/>
            </lane>
            <lane id="sw_to_nw_1"/>
        </edge>
        <edge id="sw_to_se">
            <lane id="sw_to_se_0">
                <vehicle id="veh5" pos="7.85" speed="3.97"/>
            </lane>
            <lane id="sw_to_se_1"/>
        </edge>
    </timestep>
    <timestep time="1.40">
        <edge id="ne_to_nw">
            <lane id="ne_to_nw_0">
                <vehicle id="veh1" pos="8.33" speed="4.53"/>
            </lane>
            <lane id="ne_to_nw_1"/>
        </edge>
        <edge id="nw_to_ne">
            <lane id="nw_to_ne_0">
                <vehicle id="veh6" pos="8.35" speed="4.49"/>
            </lane>
            <lane id="nw_to_ne_1"/>
        </edge>
        <edge id="nw_to_sw">
            <lane id="nw_to_sw_0">
                <vehicle id="veh2" pos="9.97" speed="4.62"/>
            </lane>
            <lane id="nw_to_sw_1"/>
        </edge>
        <edge id="se_to_sw">
            <lane id="se_to_sw_0">
                <vehicle id="veh3" pos="8.15" speed="4.15"/>
            </lane>
            <lane id="se_to_sw_1"/>
        </edge>
        <edge id="sw_to_nw">
            <lane id="sw_to_nw_0">
                <vehicle id="veh4" pos="8.24" speed="4.28"/>
            </lane>
            <lane id="sw_to_nw_1"/>
        </edge>
        <edge id="sw_to_se">
            <lane id="sw_to_se_0">
                <vehicle id="veh5" pos="8.27" speed="4.17"/>
            </lane>
            <lane id="sw_to_se_1"/>
        </edge>
    </timestep>
    <timestep time="1.50">
        <edge id="ne_to_nw">
            <lane id="ne_to_nw_0">
                <vehicle id="veh1" pos="8.81" speed="4.79"/>
            </lane>
            <lane id="ne_to_nw_1"/>
        </edge>
        <edge id="nw_to_ne">
            <lane id="nw_to_ne_0">
                <vehicle id="veh6" pos="8.83" speed="4.82"/>
            </lane>
            <lane id="nw_to_ne_1"/>
        </edge>
        <edge id="nw_to_sw">
            <lane id="nw_to_sw_0">
                <vehicle id="veh2" pos="10.46" speed="4.89"/>
            </lane>
            <lane id="nw_to_sw_1"/>
        </edge>
        <edge id="se_to_sw">
            <lane id="se_to_sw_0">
                <vehicle id="veh3" pos="8.59" speed="4.41"/>
            </lane>
            <lane id="se_to_sw_1"/>
        </edge>
        <edge id="sw_to_nw">
            <lane id="sw_to_nw_0">
                <vehicle id="veh4" pos="8.71" speed="4.63"/>
            </lane>
            <lane id="sw_to_nw_1"/>
        </edge>
        <edge id="sw_to_se">
            <lane id="sw_to_se_0">
                <vehicle id="veh5" pos="8.72" speed="4.48"/>
            </lane>
            <lane id="sw_to_se_1"/>
        </edge>
    </timestep>
    <timestep time="1.60">
        <edge id="ne_to_nw">
            <lane id="ne_to_nw_0">
                <vehicle id="veh1" pos="9.31" speed="5.04"/>
            </lane>
            <lane id="ne_to_nw_1"/>
        </edge>
        <edge id="nw_to_ne">
            <lane id="nw_to_ne_0">
                <vehicle id="veh6" pos="9.35" speed="5.16"/>
            </lane>
            <lane id="nw_to_ne_1"/>
        </edge>
        <edge id="nw_to_sw">
            <lane id="nw_to_sw_0">
                <vehicle id="veh2" pos="10.98" speed="5.26"/>
            </lane>
            <lane id="nw_to_sw_1"/>
        </edge>
        <edge id="se_to_sw">
            <lane id="se_to_sw_0">
                <vehicle id="veh3" pos="9.06" speed="4.71"/>
            </lane>
            <lane id="se_to_sw_1"/>
        </edge>
        <edge id="sw_to_nw">
            <lane id="sw_to_nw_0">
                <vehicle id="veh4" pos="9.20" speed="4.89"/>
            </lane>
            <lane id="sw_to_nw_1"/>
        </edge>
        <edge id="sw_to_se">
            <lane id="sw_to_se_0">
                <vehicle id="veh5" pos="9.20" speed="4.81"/>
            </lane>
            <lane id="sw_to_se_1"/>
        </edge>
    </timestep>
    <timestep time="1.70">
        <edge id="ne_to_nw">
            <lane id="ne_to_nw_0">
                <vehicle id="veh1" pos="9.85" speed="5.38"/>
            </lane>
            <lane id="ne_to_nw_1"/>
        </edge>
        <edge id="nw_to_ne">
            <lane id="nw_to_ne_0">
                <vehicle id="veh6" pos="9.90" speed="5.49"/>
            </lane>
            <lane id="nw_to_ne_1"/>
        </edge>
        <edge id="nw_to_sw">
            <lane id="nw_to_sw_0">
                <vehicle id="veh2" pos="11.53" speed="5.49"/>
            </lane>
            <lane id="nw_to_sw_1"/>
        </edge>
        <edge id="se_to_sw">
            <lane id="se_to_sw_0">
                <vehicle id="veh3" pos="9.57" speed="5.10"/>
            </lane>
            <lane id="se_to_sw_1"/>
        </edge>
        <edge id="sw_to_nw">
            <lane id="sw_to_nw_0">
                <vehicle id="veh4" pos="9.72" speed="5.29"/>
            </lane>
            <lane id="sw_to_nw_1"/>
        </edge>
        <edge id="sw_to_se">
            <lane id="sw_to_se_0">
                <vehicle id="veh5" pos="9.71" speed="5.09"/>
            </lane>
            <lane id="sw_to_se_1"/>
        </edge>
    </timestep>
    <timestep time="1.80">
        <edge id="ne_to_nw">
            <lane id="ne_to_nw_0">
                <vehicle id="veh1" pos="10.43" speed="5.75"/>
            </lane>
            <lane id="ne_to_nw_1"/>
        </edge>
        <edge id="nw_to_ne">
            <lane id="nw_to_ne_0">
                <vehicle id="veh6" pos="10.47" speed="5.78"/>
            </lane>
            <lane id="nw_to_ne_1"/>
        </edge>
        <edge id="nw_to_sw">
            <lane id="nw_to_sw_0">
                <vehicle id="veh2" pos="12.12" speed="5.87"/>
            </lane>
            <lane id="nw_to_sw_1"/>
        </edge>
        <edge id="se_to_sw">
            <lane id="se_to_sw_0">
                <vehicle id="veh3" pos="10.11" speed="5.37"/>
            </lane>
            <lane id="se_to_sw_1"/>
        </edge>
        <edge id="sw_to_nw">
            <lane id="sw_to_nw_0">
                <vehicle id="veh4" pos="10.28" speed="5.51"/>
            </lane>
            <lane id="sw_to_nw_1"/>
        </edge>
        <edge id="sw_to_se">
            <lane id="sw_to_se_0">
                <vehicle id="veh5" pos="10.25" speed="5.46"/>
            </lane>
            <lane id="sw_to_se_1"/>
        </edge>
    </timestep>
    <timestep time="1.90">
        <edge id="ne_to_nw">
            <lane id="ne_to_nw_0">
                <vehicle id="veh1" pos="11.04" speed="6.10"/>
            </lane>
            <lane id="ne_to_nw_1"/>
        </edge>
        <edge id="nw_to_ne">
            <lane id="nw_to_ne_0">
                <vehicle id="veh6" pos="11.08" speed="6.07"/>
            </lane>
            <lane id="nw_to_ne_1"/>
        </edge>
        <edge id="nw_to_sw">
            <lane id="nw_to_sw_0">
                <vehicle id="veh9" pos="5.10" speed="0.00"/>
                <vehicle id="veh2" pos="12.73" speed="6.10"/>
            </lane>
            <lane id="nw_to_sw_1"/>
        </edge>
        <edge id="se_to_sw">
            <lane id="se_to_sw_0">
                <vehicle id="veh3" pos="10.67" speed="5.60"/>
            </lane>
            <lane id="se_to_sw_1"/>
        </edge>
        <edge id="sw_to_nw">
            <lane id="sw_to_nw_0">
                <vehicle id="veh4" pos="10.82" speed="5.46"/>
            </lane>
            <lane id="sw_to_nw_1"/>
        </edge>
        <edge id="sw_to_se">
            <lane id="sw_to_se_0">
                <vehicle id="veh5" pos="10.83" speed="5.81"/>
            </lane>
            <lane id="sw_to_se_1"/>
        </edge>
    </timestep>
    <timestep time="2.00">
        <edge id="ne_to_nw">
            <lane id="ne_to_nw_0">
                <vehicle id="veh7" pos="5.10" speed="0.00"/>
                <vehicle id="veh1" pos="11.68" speed="6.48"/>
            </lane>
            <lane id="ne_to_nw_1"/>
        </edge>
        <edge id="nw_to_ne">
            <lane id="nw_to_ne_0">
                <vehicle id="veh12" pos="5.10" speed="0.00"/>
                <vehicle id="veh6" pos="11.72" speed="6.43"/>
            </lane>
            <lane id="nw_to_ne_1"/>
        </edge>
        <edge id="nw_to_sw">
            <lane id="nw_to_sw_0">
                <vehicle id="veh9" pos="5.14" speed="0.39"/>
                <vehicle id="veh2" pos="13.36" speed="6.32"/>
            </lane>
            <lane id="nw_to_sw_1"/>
        </edge>
        <edge id="se_to_sw">
            <lane id="se_to_sw_0">
                <vehicle id="veh8" pos="5.10" speed="0.00"/>
                <vehicle id="veh3" pos="11.26" speed="5.96"/>
            </lane>
            <lane id="se_to_sw_1"/>
        </edge>
        <edge id="sw_to_nw">
            <lane id="sw_to_nw_0">
                <vehicle id="veh10" pos="5.10" speed="0.00"/>
                <vehicle id="veh4" pos="11.36" speed="5.39"/>
            </lane>
            <lane id="sw_to_nw_1"/>
        </edge>
        <edge id="sw_to_se">
            <lane id="sw_to_se_0">
                <vehicle id="veh11" pos="5.10" speed="0.00"/>
                <vehicle id="veh5" pos="11.45" speed="6.13"/>
            </lane>
            <lane id="sw_to_se_1"/>
        </edge>
    </timestep>
    <timestep time="2.10">
        <edge id="ne_to_nw">
            <lane id="ne_to_nw_0">
                <vehicle id="veh7" pos="5.14" speed="0.39"/>
                <vehicle id="veh1" pos="12.37" speed="6.85"/>
            </lane>
            <lane id="ne_to_nw_1"/>
        </edge>
        <edge id="nw_to_ne">
            <lane id="nw_to_ne_0">
                <vehicle id="veh12" pos="5.14" speed="0.38"/>
                <vehicle id="veh6" pos="12.39" speed="6.69"/>
            </lane>
            <lane id="nw_to_ne_1"/>
        </edge>
        <edge id="nw_to_sw">
            <lane id="nw_to_sw_0">
                <vehicle id="veh9" pos="5.22" speed="0.78"/>
                <vehicle id="veh2" pos="14.02" speed="6.60"/>
            </lane>
            <lane id="nw_to_sw_1"/>
        </edge>
        <edge id="se_to_sw">
            <lane id="se_to_sw_0">
                <vehicle id="veh8" pos="5.14" speed="0.39"/>
                <vehicle id="veh3" pos="11.88" speed="6.20"/>
            </lane>
            <lane id="se_to_sw_1"/>
        </edge>
        <edge id="sw_to_nw">
            <lane id="sw_to_nw_0">
                <vehicle id="veh10" pos="5.14" speed="0.40"/>
                <vehicle id="veh4" pos="11.90" speed="5.39"/>
            </lane>
            <lane id="sw_to_nw_1"/>
        </edge>
        <edge id="sw_to_se">
            <lane id="sw_to_se_0">
                <vehicle id="veh11" pos="5.14" speed="0.39"/>
                <vehicle id="veh5" pos="12.09" speed="6.42"/>
            </lane>
            <lane id="sw_to_se_1"/>
        </edge>
    </timestep>
    <timestep time="2.20">
        <edge id="ne_to_nw">
            <lane id="ne_to_nw_0">
                <vehicle id="veh7" pos="5.21" speed="0.75"/>
                <vehicle id="veh1" pos="13.05" speed="6.80"/>
            </lane>
            <lane id="ne_to_nw_1"/>
        </edge>
        <edge id="nw_to_ne">
            <lane id="nw_to_ne_0">
                <vehicle id="veh12" pos="5.22" speed="0.77"/>
                <vehicle id="veh6" pos="13.09" speed="6.99"/>
            </lane>
            <lane id="nw_to_ne_1"/>
        </edge>
        <edge id="nw_to_sw">
            <lane id="nw_to_sw_0">
                <vehicle id="veh9" pos="5.33" speed="1.14"/>
                <vehicle id="veh2" pos="14.72" speed="6.99"/>
            </lane>
            <lane id="nw_to_sw_1"/>
        </edge>
        <edge id="se_to_sw">
            <lane id="se_to_sw_0">
                <vehicle id="veh8" pos="5.22" speed="0.77"/>
                <vehicle id="veh3" pos="12.53" speed="6.44"/>
            </lane>
            <lane id="se_to_sw_1"/>
        </edge>
        <edge id="sw_to_nw">
            <lane id="sw_to_nw_0">
                <vehicle id="veh10" pos="5.22" speed="0.78"/>
                <vehicle id="veh4" pos="12.45" speed="5.52"/>
            </lane>
            <lane id="sw_to_nw_1"/>
        </edge>
        <edge id="sw_to_se">
            <lane id="sw_to_se_0">
                <vehicle id="veh11" pos="5.22" speed="0.78"/>
                <vehicle id="veh5" pos="12.77" speed="6.81"/>
            </lane>
            <lane id="sw_to_se_1"/>
        </edge>
    </timestep>
    <timestep time="2.30">
        <edge id="ne_to_nw">
            <lane id="ne_to_nw_0">
                <vehicle id="veh7" pos="5.33" speed="1.15"/>
                <vehicle id="veh1" pos="13.73" speed="6.78"/>
            </lane>
            <lane id="ne_to_nw_1"/>
        </edge>
        <edge id="nw_to_ne">
            <lane id="nw_to_ne_0">
                <vehicle id="veh12" pos="5.33" speed="1.14"/>