<?xml version="1.0" encoding="UTF-8"?>

<!-- generated on 2026-02-20T00:43:47.367435+03:00 by Eclipse SUMO sumo 1.26.0
<sumoConfiguration xmlns:xsi="http://www.w3.org/2001/XMLSchema-instance" xsi:noNamespaceSchemaLocation="http://sumo.dlr.de/xsd/sumoConfiguration.xsd">

    <input>
        <net-file value="src/automotive/examples/sumo_files_v2v_map/map.net.xml"/>
        <route-files value="src/automotive/examples/sumo_files_v2v_map/cars.rou.xml"/>
        <additional-files value="src/automotive/examples/sumo_files_v2v_map/rerouter.add.xml"/>
    </input>

    <output>
        <netstate-dump value="/home/afetz/work/clean/NEWWAY/analysis/scenario_runs/2026-02-20/eva-sionna-incident-sweep-004140/tx_23/sionna/artifacts/eva-netstate.xml"/>
    </output>

    <time>
        <begin value="0"/>
        <end value="300"/>
        <step-length value="0.010000"/>
    </time>

    <report>
        <verbose value="false"/>
        <no-warnings value="true"/>
        <no-step-log value="true"/>
    </report>

    <traci_server>
        <remote-port value="47758"/>
    </traci_server>

    <random_number>
        <seed value="10"/>
    </random_number>

    <gui_only>
        <quit-on-end value="true"/>
        <start value="true"/>
    </gui_only>

</sumoConfiguration>
