<?xml version="1.0" encoding="UTF-8"?>

<!-- generated on 2026-02-19T18:16:26.401606+03:00 by Eclipse SUMO sumo 1.26.0
<sumoConfiguration xmlns:xsi="http://www.w3.org/2001/XMLSchema-instance" xsi:noNamespaceSchemaLocation="http://sumo.dlr.de/xsd/sumoConfiguration.xsd">

    <input>
        <net-file value="/home/afetz/work/clean/NEWWAY/.bootstrap-ns3/repo/ns-3-dev/src/automotive/examples/sumo_files_v2v_map/map.net.xml"/>
        <route-files value="/home/afetz/work/clean/NEWWAY/.bootstrap-ns3/repo/ns-3-dev/src/automotive/examples/sumo_files_v2v_map/cars.rou.xml"/>
        <additional-files value="/home/afetz/work/clean/NEWWAY/.bootstrap-ns3/repo/ns-3-dev/src/automotive/examples/sumo_files_v2v_map/rerouter.add.xml"/>
    </input>

    <output>
        <netstate-dump value="/home/afetz/work/clean/NEWWAY/analysis/scenario_runs/2026-02-19/eva-baseline-lossy-smoke3-181624/baseline/artifacts/eva-netstate.xml"/>
        <collision-output value="/home/afetz/work/clean/NEWWAY/analysis/scenario_runs/2026-02-19/eva-baseline-lossy-smoke3-181624/baseline/artifacts/eva-collision.xml"/>
    </output>

    <time>
        <begin value="0"/>
        <end value="300"/>
        <step-length value="0.010000"/>
    </time>

    <processing>
        <collision.action value="warn"/>
        <collision.check-junctions value="true"/>
    </processing>

    <report>
        <verbose value="true"/>
        <no-warnings value="true"/>
        <no-step-log value="true"/>
    </report>

    <traci_server>
        <remote-port value="3400"/>
    </traci_server>

    <random_number>
        <seed value="10"/>
    </random_number>

    <gui_only>
        <quit-on-end value="true"/>
        <start value="true"/>
    </gui_only>

</sumoConfiguration>
-->

<netstate xmlns:xsi="http://www.w3.org/2001/XMLSchema-instance" xsi:noNamespaceSchemaLocation="http://sumo.dlr.de/xsd/netstate_file.xsd">
    <timestep time="0.00"/>
    <timestep time="0.01"/>
    <timestep time="0.02"/>
    <timestep time="0.03"/>
    <timestep time="0.04"/>
    <timestep time="0.05"/>
    <timestep time="0.06"/>
    <timestep time="0.07"/>
    <timestep time="0.08"/>
    <timestep time="0.09"/>
    <timestep time="0.10">
        <edge id="ne_to_nw">
            <lane id="ne_to_nw_0">
                <vehicle id="veh1" pos="5.10" speed="0.00"/>
            </lane>
            <lane id="ne_to_nw_1"/>
        </edge>
        <edge id="nw_to_ne">
            <lane id="nw_to_ne_0">
                <vehicle id="veh6" pos="5.10" speed="0.00"/>
            </lane>
            <lane id="nw_to_ne_1"/>
        </edge>
        <edge id="nw_to_sw">
            <lane id="nw_to_sw_0">
                <vehicle id="veh2" pos="6.60" speed="0.00"/>
            </lane>
            <lane id="nw_to_sw_1"/>
        </edge>
        <edge id="se_to_sw">
            <lane id="se_to_sw_0">
                <vehicle id="veh3" pos="5.10" speed="0.00"/>
            </lane>
            <lane id="se_to_sw_1"/>
        </edge>
        <edge id="sw_to_nw">
            <lane id="sw_to_nw_0">
                <vehicle id="veh4" pos="5.10" speed="0.00"/>
            </lane>
            <lane id="sw_to_nw_1"/>
        </edge>
        <edge id="sw_to_se">
            <lane id="sw_to_se_0">
                <vehicle id="veh5" pos="5.10" speed="0.00"/>
            </lane>
            <lane id="sw_to_se_1"/>
        </edge>
    </timestep>
    <timestep time="0.11">
        <edge id="ne_to_nw">
            <lane id="ne_to_nw_0">
                <vehicle id="veh1" pos="5.10" speed="0.04"/>
            </lane>
            <lane id="ne_to_nw_1"/>
        </edge>
        <edge id="nw_to_ne">
            <lane id="nw_to_ne_0">
                <vehicle id="veh6" pos="5.10" speed="0.04"/>
            </lane>
            <lane id="nw_to_ne_1"/>
        </edge>
        <edge id="nw_to_sw">
            <lane id="nw_to_sw_0">
                <vehicle id="veh2" pos="6.60" speed="0.04"/>
            </lane>
            <lane id="nw_to_sw_1"/>
        </edge>
        <edge id="se_to_sw">
            <lane id="se_to_sw_0">
                <vehicle id="veh3" pos="5.10" speed="0.04"/>
            </lane>
            <lane id="se_to_sw_1"/>
        </edge>
        <edge id="sw_to_nw">
            <lane id="sw_to_nw_0">
                <vehicle id="veh4" pos="5.10" speed="0.04"/>
            </lane>
            <lane id="sw_to_nw_1"/>
        </edge>
        <edge id="sw_to_se">
            <lane id="sw_to_se_0">
                <vehicle id="veh5" pos="5.10" speed="0.04"/>
            </lane>
            <lane id="sw_to_se_1"/>
        </edge>
    </timestep>
    <timestep time="0.12">
        <edge id="ne_to_nw">
            <lane id="ne_to_nw_0">
                <vehicle id="veh1" pos="5.10" speed="0.08"/>
            </lane>
            <lane id="ne_to_nw_1"/>
        </edge>
        <edge id="nw_to_ne">
            <lane id="nw_to_ne_0">
                <vehicle id="veh6" pos="5.10" speed="0.08"/>
            </lane>
            <lane id="nw_to_ne_1"/>
        </edge>
        <edge id="nw_to_sw">
            <lane id="nw_to_sw_0">
                <vehicle id="veh2" pos="6.60" speed="0.08"/>
            </lane>
            <lane id="nw_to_sw_1"/>
        </edge>
        <edge id="se_to_sw">
            <lane id="se_to_sw_0">
                <vehicle id="veh3" pos="5.10" speed="0.08"/>
            </lane>
            <lane id="se_to_sw_1"/>
        </edge>
        <edge id="sw_to_nw">
            <lane id="sw_to_nw_0">
                <vehicle id="veh4" pos="5.10" speed="0.08"/>
            </lane>
            <lane id="sw_to_nw_1"/>
        </edge>
        <edge id="sw_to_se">
            <lane id="sw_to_se_0">
                <vehicle id="veh5" pos="5.10" speed="0.08"/>
            </lane>
            <lane id="sw_to_se_1"/>
        </edge>
    </timestep>
    <timestep time="0.13">
        <edge id="ne_to_nw">
            <lane id="ne_to_nw_0">
                <vehicle id="veh1" pos="5.10" speed="0.12"/>
            </lane>
            <lane id="ne_to_nw_1"/>
        </edge>
        <edge id="nw_to_ne">
            <lane id="nw_to_ne_0">
                <vehicle id="veh6" pos="5.10" speed="0.12"/>
            </lane>
            <lane id="nw_to_ne_1"/>
        </edge>
        <edge id="nw_to_sw">
            <lane id="nw_to_sw_0">
                <vehicle id="veh2" pos="6.60" speed="0.12"/>
            </lane>
            <lane id="nw_to_sw_1"/>
        </edge>
        <edge id="se_to_sw">
            <lane id="se_to_sw_0">
                <vehicle id="veh3" pos="5.10" speed="0.12"/>
            </lane>
            <lane id="se_to_sw_1"/>
        </edge>
        <edge id="sw_to_nw">
            <lane id="sw_to_nw_0">
                <vehicle id="veh4" pos="5.10" speed="0.12"/>
            </lane>
            <lane id="sw_to_nw_1"/>
        </edge>
        <edge id="sw_to_se">
            <lane id="sw_to_se_0">
                <vehicle id="veh5" pos="5.10" speed="0.12"/>
            </lane>
            <lane id="sw_to_se_1"/>
        </edge>
    </timestep>
    <timestep time="0.14">
        <edge id="ne_to_nw">
            <lane id="ne_to_nw_0">
                <vehicle id="veh1" pos="5.10" speed="0.16"/>
            </lane>
            <lane id="ne_to_nw_1"/>
        </edge>
        <edge id="nw_to_ne">
            <lane id="nw_to_ne_0">
                <vehicle id="veh6" pos="5.10" speed="0.16"/>
            </lane>
            <lane id="nw_to_ne_1"/>
        </edge>
        <edge id="nw_to_sw">
            <lane id="nw_to_sw_0">
                <vehicle id="veh2" pos="6.60" speed="0.16"/>
            </lane>
            <lane id="nw_to_sw_1"/>
        </edge>
        <edge id="se_to_sw">
            <lane id="se_to_sw_0">
                <vehicle id="veh3" pos="5.10" speed="0.16"/>
            </lane>
            <lane id="se_to_sw_1"/>
        </edge>
        <edge id="sw_to_nw">
            <lane id="sw_to_nw_0">
                <vehicle id="veh4" pos="5.10" speed="0.16"/>
            </lane>
            <lane id="sw_to_nw_1"/>
        </edge>
        <edge id="sw_to_se">
            <lane id="sw_to_se_0">
                <vehicle id="veh5" pos="5.10" speed="0.16"/>
            </lane>
            <lane id="sw_to_se_1"/>
        </edge>
    </timestep>
    <timestep time="0.15">
        <edge id="ne_to_nw">
            <lane id="ne_to_nw_0">
                <vehicle id="veh1" pos="5.11" speed="0.20"/>
            </lane>
            <lane id="ne_to_nw_1"/>
        </edge>
        <edge id="nw_to_ne">
            <lane id="nw_to_ne_0">
                <vehicle id="veh6" pos="5.11" speed="0.20"/>
            </lane>
            <lane id="nw_to_ne_1"/>
        </edge>
        <edge id="nw_to_sw">
            <lane id="nw_to_sw_0">
                <vehicle id="veh2" pos="6.61" speed="0.20"/>
            </lane>
            <lane id="nw_to_sw_1"/>
        </edge>
        <edge id="se_to_sw">
            <lane id="se_to_sw_0">
                <vehicle id="veh3" pos="5.11" speed="0.20"/>
            </lane>
            <lane id="se_to_sw_1"/>
        </edge>
        <edge id="sw_to_nw">
            <lane id="sw_to_nw_0">
                <vehicle id="veh4" pos="5.11" speed="0.20"/>
            </lane>
            <lane id="sw_to_nw_1"/>
        </edge>
        <edge id="sw_to_se">
            <lane id="sw_to_se_0">
                <vehicle id="veh5" pos="5.11" speed="0.20"/>
            </lane>
            <lane id="sw_to_se_1"/>
        </edge>
    </timestep>
    <timestep time="0.16">
        <edge id="ne_to_nw">
            <lane id="ne_to_nw_0">
                <vehicle id="veh1" pos="5.11" speed="0.24"/>
            </lane>
            <lane id="ne_to_nw_1"/>
        </edge>
        <edge id="nw_to_ne">
            <lane id="nw_to_ne_0">
                <vehicle id="veh6" pos="5.11" speed="0.24"/>
            </lane>
            <lane id="nw_to_ne_1"/>
        </edge>
        <edge id="nw_to_sw">
            <lane id="nw_to_sw_0">
                <vehicle id="veh2" pos="6.61" speed="0.24"/>
            </lane>
            <lane id="nw_to_sw_1"/>
        </edge>
        <edge id="se_to_sw">
            <lane id="se_to_sw_0">
                <vehicle id="veh3" pos="5.11" speed="0.24"/>
            </lane>
            <lane id="se_to_sw_1"/>
        </edge>
        <edge id="sw_to_nw">
            <lane id="sw_to_nw_0">
                <vehicle id="veh4" pos="5.11" speed="0.24"/>
            </lane>
            <lane id="sw_to_nw_1"/>
        </edge>
        <edge id="sw_to_se">
            <lane id="sw_to_se_0">
                <vehicle id="veh5" pos="5.11" speed="0.24"/>
            </lane>
            <lane id="sw_to_se_1"/>
        </edge>
    </timestep>
    <timestep time="0.17">
        <edge id="ne_to_nw">
            <lane id="ne_to_nw_0">
                <vehicle id="veh1" pos="5.11" speed="0.28"/>
            </lane>
            <lane id="ne_to_nw_1"/>
        </edge>
        <edge id="nw_to_ne">
            <lane id="nw_to_ne_0">
                <vehicle id="veh6" pos="5.11" speed="0.28"/>
            </lane>
            <lane id="nw_to_ne_1"/>
        </edge>
        <edge id="nw_to_sw">
            <lane id="nw_to_sw_0">
                <vehicle id="veh2" pos="6.61" speed="0.28"/>
            </lane>
            <lane id="nw_to_sw_1"/>
        </edge>
        <edge id="se_to_sw">
            <lane id="se_to_sw_0">
                <vehicle id="veh3" pos="5.11" speed="0.28"/>
            </lane>
            <lane id="se_to_sw_1"/>
        </edge>
        <edge id="sw_to_nw">
            <lane id="sw_to_nw_0">
                <vehicle id="veh4" pos="5.11" speed="0.28"/>
            </lane>
            <lane id="sw_to_nw_1"/>
        </edge>
        <edge id="sw_to_se">
            <lane id="sw_to_se_0">
                <vehicle id="veh5" pos="5.11" speed="0.28"/>
            </lane>
            <lane id="sw_to_se_1"/>
        </edge>
    </timestep>
    <timestep time="0.18">
        <edge id="ne_to_nw">
            <lane id="ne_to_nw_0">
                <vehicle id="veh1" pos="5.11" speed="0.32"/>
            </lane>
            <lane id="ne_to_nw_1"/>
        </edge>
        <edge id="nw_to_ne">
            <lane id="nw_to_ne_0">
                <vehicle id="veh6" pos="5.11" speed="0.32"/>
            </lane>
            <lane id="nw_to_ne_1"/>
        </edge>
        <edge id="nw_to_sw">
            <lane id="nw_to_sw_0">
                <vehicle id="veh2" pos="6.61" speed="0.32"/>
            </lane>
            <lane id="nw_to_sw_1"/>
        </edge>
        <edge id="se_to_sw">
            <lane id="se_to_sw_0">
                <vehicle id="veh3" pos="5.11" speed="0.31"/>
            </lane>
            <lane id="se_to_sw_1"/>
        </edge>
        <edge id="sw_to_nw">
            <lane id="sw_to_nw_0">
                <vehicle id="veh4" pos="5.11" speed="0.32"/>
            </lane>
            <lane id="sw_to_nw_1"/>
        </edge>
        <edge id="sw_to_se">
            <lane id="sw_to_se_0">
                <vehicle id="veh5" pos="5.11" speed="0.32"/>
            </lane>
            <lane id="sw_to_se_1"/>
        </edge>
    </timestep>
    <timestep time="0.19">
        <edge id="ne_to_nw">
            <lane id="ne_to_nw_0">
                <vehicle id="veh1" pos="5.12" speed="0.35"/>
            </lane>
            <lane id="ne_to_nw_1"/>
        </edge>
        <edge id="nw_to_ne">
            <lane id="nw_to_ne_0">
                <vehicle id="veh6" pos="5.12" speed="0.36"/>
            </lane>
            <lane id="nw_to_ne_1"/>
        </edge>
        <edge id="nw_to_sw">
            <lane id="nw_to_sw_0">
                <vehicle id="veh2" pos="6.62" speed="0.36"/>
            </lane>
            <lane id="nw_to_sw_1"/>
        </edge>
        <edge id="se_to_sw">
            <lane id="se_to_sw_0">
                <vehicle id="veh3" pos="5.12" speed="0.35"/>
            </lane>
            <lane id="se_to_sw_1"/>
        </edge>
        <edge id="sw_to_nw">
            <lane id="sw_to_nw_0">
                <vehicle id="veh4" pos="5.12" speed="0.35"/>
            </lane>
            <lane id="sw_to_nw_1"/>
        </edge>
        <edge id="sw_to_se">
            <lane id="sw_to_se_0">
                <vehicle id="veh5" pos="5.12" speed="0.36"/>
            </lane>
            <lane id="sw_to_se_1"/>
        </edge>
    </timestep>
    <timestep time="0.20">
        <edge id="ne_to_nw">
            <lane id="ne_to_nw_0">
                <vehicle id="veh1" pos="5.12" speed="0.39"/>
            </lane>
            <lane id="ne_to_nw_1"/>
        </edge>
        <edge id="nw_to_ne">
            <lane id="nw_to_ne_0">
                <vehicle id="veh6" pos="5.12" speed="0.40"/>
            </lane>
            <lane id="nw_to_ne_1"/>
        </edge>
        <edge id="nw_to_sw">
            <lane id="nw_to_sw_0">
                <vehicle id="veh2" pos="6.62" speed="0.40"/>
            </lane>
            <lane id="nw_to_sw_1"/>
        </edge>
        <edge id="se_to_sw">
            <lane id="se_to_sw_0">
                <vehicle id="veh3" pos="5.12" speed="0.39"/>
            </lane>
            <lane id="se_to_sw_1"/>
        </edge>
        <edge id="sw_to_nw">
            <lane id="sw_to_nw_0">
                <vehicle id="veh4" pos="5.12" speed="0.39"/>
            </lane>
            <lane id="sw_to_nw_1"/>
        </edge>
        <edge id="sw_to_se">
            <lane id="sw_to_se_0">
                <vehicle id="veh5" pos="5.12" speed="0.39"/>
            </lane>
            <lane id="sw_to_se_1"/>
        </edge>
    </timestep>
    <timestep time="0.21">
        <edge id="ne_to_nw">
            <lane id="ne_to_nw_0">
                <vehicle id="veh1" pos="5.13" speed="0.43"/>
            </lane>
            <lane id="ne_to_nw_1"/>
        </edge>
        <edge id="nw_to_ne">
            <lane id="nw_to_ne_0">
                <vehicle id="veh6" pos="5.13" speed="0.43"/>
            </lane>
            <lane id="nw_to_ne_1"/>
        </edge>
        <edge id="nw_to_sw">
            <lane id="nw_to_sw_0">
                <vehicle id="veh2" pos="6.63" speed="0.44"/>
            </lane>
            <lane id="nw_to_sw_1"/>
        </edge>
        <edge id="se_to_sw">
            <lane id="se_to_sw_0">
                <vehicle id="veh3" pos="5.13" speed="0.43"/>
            </lane>
            <lane id="se_to_sw_1"/>
        </edge>
        <edge id="sw_to_nw">
            <lane id="sw_to_nw_0">
                <vehicle id="veh4" pos="5.13" speed="0.43"/>
            </lane>
            <lane id="sw_to_nw_1"/>
        </edge>
        <edge id="sw_to_se">
            <lane id="sw_to_se_0">
                <vehicle id="veh5" pos="5.13" speed="0.43"/>
            </lane>
            <lane id="sw_to_se_1"/>
        </edge>
    </timestep>
    <timestep time="0.22">
        <edge id="ne_to_nw">
            <lane id="ne_to_nw_0">
                <vehicle id="veh1" pos="5.13" speed="0.47"/>
            </lane>
            <lane id="ne_to_nw_1"/>
        </edge>
        <edge id="nw_to_ne">
            <lane id="nw_to_ne_0">
                <vehicle id="veh6" pos="5.13" speed="0.47"/>
            </lane>
            <lane id="nw_to_ne_1"/>
        </edge>
        <edge id="nw_to_sw">
            <lane id="nw_to_sw_0">
                <vehicle id="veh2" pos="6.63" speed="0.48"/>
            </lane>
            <lane id="nw_to_sw_1"/>
        </edge>
        <edge id="se_to_sw">
            <lane id="se_to_sw_0">
                <vehicle id="veh3" pos="5.13" speed="0.47"/>
            </lane>
            <lane id="se_to_sw_1"/>
        </edge>
        <edge id="sw_to_nw">
            <lane id="sw_to_nw_0">
                <vehicle id="veh4" pos="5.13" speed="0.47"/>
            </lane>
            <lane id="sw_to_nw_1"/>
        </edge>
        <edge id="sw_to_se">
            <lane id="sw_to_se_0">
                <vehicle id="veh5" pos="5.13" speed="0.47"/>
            </lane>
            <lane id="sw_to_se_1"/>
        </edge>
    </timestep>
    <timestep time="0.23">
        <edge id="ne_to_nw">
            <lane id="ne_to_nw_0">
                <vehicle id="veh1" pos="5.14" speed="0.51"/>
            </lane>
            <lane id="ne_to_nw_1"/>
        </edge>
        <edge id="nw_to_ne">
            <lane id="nw_to_ne_0">
                <vehicle id="veh6" pos="5.14" speed="0.51"/>
            </lane>
            <lane id="nw_to_ne_1"/>
        </edge>
        <edge id="nw_to_sw">
            <lane id="nw_to_sw_0">
                <vehicle id="veh2" pos="6.64" speed="0.51"/>
            </lane>
            <lane id="nw_to_sw_1"/>
        </edge>
        <edge id="se_to_sw">
            <lane id="se_to_sw_0">
                <vehicle id="veh3" pos="5.14" speed="0.51"/>
            </lane>
            <lane id="se_to_sw_1"/>
        </edge>
        <edge id="sw_to_nw">
            <lane id="sw_to_nw_0">
                <vehicle id="veh4" pos="5.14" speed="0.51"/>
            </lane>
            <lane id="sw_to_nw_1"/>
        </edge>
        <edge id="sw_to_se">
            <lane id="sw_to_se_0">
                <vehicle id="veh5" pos="5.14" speed="0.51"/>
            </lane>
            <lane id="sw_to_se_1"/>
        </edge>
    </timestep>
    <timestep time="0.24">
        <edge id="ne_to_nw">
            <lane id="ne_to_nw_0">
                <vehicle id="veh1" pos="5.14" speed="0.55"/>
            </lane>
            <lane id="ne_to_nw_1"/>
        </edge>
        <edge id="nw_to_ne">
            <lane id="nw_to_ne_0">
                <vehicle id="veh6" pos="5.14" speed="0.55"/>
            </lane>
            <lane id="nw_to_ne_1"/>
        </edge>
        <edge id="nw_to_sw">
            <lane id="nw_to_sw_0">
                <vehicle id="veh2" pos="6.64" speed="0.55"/>
            </lane>
            <lane id="nw_to_sw_1"/>
        </edge>
        <edge id="se_to_sw">
            <lane id="se_to_sw_0">
                <vehicle id="veh3" pos="5.14" speed="0.55"/>
            </lane>
            <lane id="se_to_sw_1"/>
        </edge>
        <edge id="sw_to_nw">
            <lane id="sw_to_nw_0">
                <vehicle id="veh4" pos="5.14" speed="0.55"/>
            </lane>
            <lane id="sw_to_nw_1"/>
        </edge>
        <edge id="sw_to_se">
            <lane id="sw_to_se_0">
                <vehicle id="veh5" pos="5.14" speed="0.55"/>
            </lane>
            <lane id="sw_to_se_1"/>
        </edge>
    </timestep>
    <timestep time="0.25">
        <edge id="ne_to_nw">
            <lane id="ne_to_nw_0">
                <vehicle id="veh1" pos="5.15" speed="0.59"/>
            </lane>
            <lane id="ne_to_nw_1"/>
        </edge>
        <edge id="nw_to_ne">
            <lane id="nw_to_ne_0">
                <vehicle id="veh6" pos="5.15" speed="0.59"/>
            </lane>
            <lane id="nw_to_ne_1"/>
        </edge>
        <edge id="nw_to_sw">
            <lane id="nw_to_sw_0">
                <vehicle id="veh2" pos="6.65" speed="0.59"/>
            </lane>
            <lane id="nw_to_sw_1"/>
        </edge>
        <edge id="se_to_sw">
            <lane id="se_to_sw_0">
                <vehicle id="veh3" pos="5.15" speed="0.58"/>
            </lane>
            <lane id="se_to_sw_1"/>
        </edge>
        <edge id="sw_to_nw">
            <lane id="sw_to_nw_0">
                <vehicle id="veh4" pos="5.15" speed="0.59"/>
            </lane>
            <lane id="sw_to_nw_1"/>
        </edge>
        <edge id="sw_to_se">
            <lane id="sw_to_se_0">
                <vehicle id="veh5" pos="5.15" speed="0.59"/>
            </lane>
            <lane id="sw_to_se_1"/>
        </edge>
    </timestep>
    <timestep time="0.26">
        <edge id="ne_to_nw">
            <lane id="ne_to_nw_0">
                <vehicle id="veh1" pos="5.15" speed="0.63"/>
            </lane>
            <lane id="ne_to_nw_1"/>
        </edge>
        <edge id="nw_to_ne">
            <lane id="nw_to_ne_0">
                <vehicle id="veh6" pos="5.15" speed="0.63"/>
            </lane>
            <lane id="nw_to_ne_1"/>
        </edge>
        <edge id="nw_to_sw">
            <lane id="nw_to_sw_0">
                <vehicle id="veh2" pos="6.65" speed="0.63"/>
            </lane>
            <lane id="nw_to_sw_1"/>
        </edge>
        <edge id="se_to_sw">
            <lane id="se_to_sw_0">
                <vehicle id="veh3" pos="5.15" speed="0.62"/>
            </lane>
            <lane id="se_to_sw_1"/>
        </edge>
        <edge id="sw_to_nw">
            <lane id="sw_to_nw_0">
                <vehicle id="veh4" pos="5.15" speed="0.63"/>
            </lane>
            <lane id="sw_to_nw_1"/>
        </edge>
        <edge id="sw_to_se">
            <lane id="sw_to_se_0">
                <vehicle id="veh5" pos="5.15" speed="0.62"/>
            </lane>
            <lane id="sw_to_se_1"/>
        </edge>
    </timestep>
    <timestep time="0.27">
        <edge id="ne_to_nw">
            <lane id="ne_to_nw_0">
                <vehicle id="veh1" pos="5.16" speed="0.67"/>
            </lane>
            <lane id="ne_to_nw_1"/>
        </edge>
        <edge id="nw_to_ne">
            <lane id="nw_to_ne_0">
                <vehicle id="veh6" pos="5.16" speed="0.67"/>
            </lane>
            <lane id="nw_to_ne_1"/>
        </edge>
        <edge id="nw_to_sw">
            <lane id="nw_to_sw_0">
                <vehicle id="veh2" pos="6.66" speed="0.67"/>
            </lane>
            <lane id="nw_to_sw_1"/>
        </edge>
        <edge id="se_to_sw">
            <lane id="se_to_sw_0">
                <vehicle id="veh3" pos="5.16" speed="0.66"/>
            </lane>
            <lane id="se_to_sw_1"/>
        </edge>
        <edge id="sw_to_nw">
            <lane id="sw_to_nw_0">
                <vehicle id="veh4" pos="5.16" speed="0.67"/>
            </lane>
            <lane id="sw_to_nw_1"/>
        </edge>
        <edge id="sw_to_se">
            <lane id="sw_to_se_0">
                <vehicle id="veh5" pos="5.16" speed="0.66"/>
            </lane>
            <lane id="sw_to_se_1"/>
        </edge>
    </timestep>
    <timestep time="0.28">
        <edge id="ne_to_nw">
            <lane id="ne_to_nw_0">
                <vehicle id="veh1" pos="5.17" speed="0.71"/>
            </lane>
            <lane id="ne_to_nw_1"/>
        </edge>
        <edge id="nw_to_ne">
            <lane id="nw_to_ne_0">
                <vehicle id="veh6" pos="5.17" speed="0.71"/>
            </lane>
            <lane id="nw_to_ne_1"/>
        </edge>
        <edge id="nw_to_sw">
            <lane id="nw_to_sw_0">
                <vehicle id="veh2" pos="6.67" speed="0.71"/>
            </lane>
            <lane id="nw_to_sw_1"/>
        </edge>
        <edge id="se_to_sw">
            <lane id="se_to_sw_0">
                <vehicle id="veh3" pos="5.17" speed="0.70"/>
            </lane>
            <lane id="se_to_sw_1"/>
        </edge>
        <edge id="sw_to_nw">
            <lane id="sw_to_nw_0">
                <vehicle id="veh4" pos="5.17" speed="0.70"/>
            </lane>
            <lane id="sw_to_nw_1"/>
        </edge>
        <edge id="sw_to_se">
            <lane id="sw_to_se_0">
                <vehicle id="veh5" pos="5.17" speed="0.70"/>
            </lane>
            <lane id="sw_to_se_1"/>
        </edge>
    </timestep>
    <timestep time="0.29">
        <edge id="ne_to_nw">
            <lane id="ne_to_nw_0">
                <vehicle id="veh1" pos="5.17" speed="0.75"/>
            </lane>
            <lane id="ne_to_nw_1"/>
        </edge>
        <edge id="nw_to_ne">
            <lane id="nw_to_ne_0">
                <vehicle id="veh6" pos="5.17" speed="0.74"/>
            </lane>
            <lane id="nw_to_ne_1"/>
        </edge>
        <edge id="nw_to_sw">
            <lane id="nw_to_sw_0">
                <vehicle id="veh2" pos="6.67" speed="0.74"/>
            </lane>
            <lane id="nw_to_sw_1"/>
        </edge>
        <edge id="se_to_sw">
            <lane id="se_to_sw_0">
                <vehicle id="veh3" pos="5.17" speed="0.74"/>
            </lane>
            <lane id="se_to_sw_1"/>
        </edge>
        <edge id="sw_to_nw">
            <lane id="sw_to_nw_0">
                <vehicle id="veh4" pos="5.17" speed="0.74"/>
            </lane>
            <lane id="sw_to_nw_1"/>
        </edge>
        <edge id="sw_to_se">
            <lane id="sw_to_se_0">
                <vehicle id="veh5" pos="5.17" speed="0.74"/>
            </lane>
            <lane id="sw_to_se_1"/>
        </edge>
    </timestep>
    <timestep time="0.30">
        <edge id="ne_to_nw">
            <lane id="ne_to_nw_0">
                <vehicle id="veh1" pos="5.18" speed="0.79"/>
            </lane>
            <lane id="ne_to_nw_1"/>
        </edge>
        <edge id="nw_to_ne">
            <lane id="nw_to_ne_0">
                <vehicle id="veh6" pos="5.18" speed="0.78"/>
            </lane>
            <lane id="nw_to_ne_1"/>
        </edge>
        <edge id="nw_to_sw">
            <lane id="nw_to_sw_0">
                <vehicle id="veh2" pos="6.68" speed="0.78"/>
            </lane>
            <lane id="nw_to_sw_1"/>
        </edge>
        <edge id="se_to_sw">
            <lane id="se_to_sw_0">
                <vehicle id="veh3" pos="5.18" speed="0.78"/>
            </lane>
            <lane id="se_to_sw_1"/>
        </edge>
        <edge id="sw_to_nw">
            <lane id="sw_to_nw_0">
                <vehicle id="veh4" pos="5.18" speed="0.78"/>
            </lane>
            <lane id="sw_to_nw_1"/>
        </edge>
        <edge id="sw_to_se">
            <lane id="sw_to_se_0">
                <vehicle id="veh5" pos="5.18" speed="0.78"/>
            </lane>
            <lane id="sw_to_se_1"/>
        </edge>
    </timestep>
    <timestep time="0.31">
        <edge id="ne_to_nw">
            <lane id="ne_to_nw_0">
                <vehicle id="veh1" pos="5.19" speed="0.82"/>
            </lane>
            <lane id="ne_to_nw_1"/>
        </edge>
        <edge id="nw_to_ne">
            <lane id="nw_to_ne_0">
                <vehicle id="veh6" pos="5.19" speed="0.82"/>
            </lane>
            <lane id="nw_to_ne_1"/>
        </edge>
        <edge id="nw_to_sw">
            <lane id="nw_to_sw_0">
                <vehicle id="veh2" pos="6.69" speed="0.82"/>
            </lane>
            <lane id="nw_to_sw_1"/>
        </edge>
        <edge id="se_to_sw">
            <lane id="se_to_sw_0">
                <vehicle id="veh3" pos="5.19" speed="0.81"/>
            </lane>
            <lane id="se_to_sw_1"/>
        </edge>
        <edge id="sw_to_nw">
            <lane id="sw_to_nw_0">
                <vehicle id="veh4" pos="5.19" speed="0.82"/>
            </lane>
            <lane id="sw_to_nw_1"/>
        </edge>
        <edge id="sw_to_se">
            <lane id="sw_to_se_0">
                <vehicle id="veh5" pos="5.19" speed="0.82"/>
            </lane>
            <lane id="sw_to_se_1"/>
        </edge>
    </timestep>
    <timestep time="0.32">
        <edge id="ne_to_nw">
            <lane id="ne_to_nw_0">
                <vehicle id="veh1" pos="5.20" speed="0.86"/>
            </lane>
            <lane id="ne_to_nw_1"/>
        </edge>
        <edge id="nw_to_ne">
            <lane id="nw_to_ne_0">
                <vehicle id="veh6" pos="5.20" speed="0.86"/>
            </lane>
            <lane id="nw_to_ne_1"/>
        </edge>
        <edge id="nw_to_sw">
            <lane id="nw_to_sw_0">
                <vehicle id="veh2" pos="6.70" speed="0.86"/>
            </lane>
            <lane id="nw_to_sw_1"/>
        </edge>
        <edge id="se_to_sw">
            <lane id="se_to_sw_0">
                <vehicle id="veh3" pos="5.20" speed="0.85"/>
            </lane>
            <lane id="se_to_sw_1"/>
        </edge>
        <edge id="sw_to_nw">
            <lane id="sw_to_nw_0">